25900
Atoms. Timestep: 2500000
N -9.84148 8.34982 0.380445
C -8.6006 7.74615 0.344095
N -9.19225 8.34643 2.37921
C -8.31536 7.54857 1.69973
C -10.1531 8.76531 1.49835
C -10.6353 8.16275 -0.783839
C -9.03248 8.5003 3.87028
C -7.93553 9.4095 4.34375
H -11.0012 9.37426 1.68306
H -8.04807 7.43217 -0.531799
H -7.3338 7.28901 2.09794
H -11.1559 9.06385 -1.06332
H -9.97501 8.0236 -1.53828
H -11.3717 7.28254 -0.650998
H -9.84436 9.03359 4.3351
H -9.06311 7.49413 4.21904
H -7.83668 9.14945 5.36848
H -6.93485 9.13 3.94808
O -8.14384 10.8749 4.25567
H -7.34974 11.3423 4.67734
N -6.76676 13.8983 63.1219
C -6.70704 12.566 63.5183
N -8.15878 12.7441 61.9777
C -7.59684 11.9119 62.7822
C -7.72086 13.9798 62.1657
C -5.72069 -13.117 63.564
C -9.02452 12.3162 60.8191
C -10.536 12.5851 61.0065
H -7.82778 -13.1184 61.5878
H -5.89088 12.2964 64.0638
H -7.8012 10.8696 62.6215
H -6.05512 -12.2651 64.0549
H -5.01956 -13.6522 64.1675
H -5.20908 -12.8251 62.6873
H -8.71109 12.7017 59.899
H -8.97663 11.2557 60.7296
H -10.9061 12.0419 61.8947
H -10.6347 13.616 61.0458
O -11.0473 12.1971 59.7513
H -11.9538 12.3011 59.904
N 23.7486 -11.3355 -15.3831
C 23.8524 -12.3695 -16.2959
N 25.466 -12.4958 -14.7931
C 25.0019 -13.0282 -15.9828
C 24.5706 -11.6995 -14.3525
C 22.7056 -10.3124 -15.4564
C -25.9005 -12.8666 -14.1187
C -25.8763 -12.8264 -12.5695
H 24.6773 -11.2829 -13.3847
H 23.0846 -12.4673 -17.0934
H 25.5188 -13.8708 -16.4033
H 22.3449 -10.1972 -16.5369
H 21.8771 -10.5644 -14.7928
H 23.06 -9.30137 -15.2687
H -25.8428 -13.9848 -14.1546
H -25.0866 -12.3299 -14.6131
H 26.1301 -13.6207 -12.2717
H -24.884 -13.061 -12.3058
O -26.3 -11.6196 -11.9316
H 25.4086 -11.8206 -11.7388
N -13.644 -6.1942 0.548124
C -13.3312 -4.86092 0.354649
N -11.5769 -6.08634 -0.179547
C -12.0841 -4.83396 -0.164986
C -12.6067 -6.83523 0.232134
C -14.9915 -6.72469 1.04357
C -10.1953 -6.43172 -0.693151
C -9.42475 -7.43022 0.28384
H -12.4215 -7.98864 0.31572
H -14.0995 -4.07935 0.420353
H -11.5752 -3.96931 -0.60558
H -15.7144 -6.5939 0.213411
H -14.9591 -7.77575 1.22169
H -15.33 -6.23461 1.91115
H -10.3626 -6.72835 -1.71208
H -9.58984 -5.50222 -0.680995
H -9.86963 -8.41122 0.0667718
H -8.38672 -7.64918 0.0830809
O -9.89593 -7.20838 1.59804
H -9.81879 -7.89478 2.01619
N 4.81243 -13.8136 -85.2684
C 3.77506 -13.3392 -86.0478
N 5.60762 -13.4525 -87.229
C 4.25301 -13.1543 -87.2858
C 5.90858 -13.8126 -85.9906
C 4.71297 13.9298 -83.8184
C 6.64899 -13.2726 -88.2418
C 7.59121 13.4635 -88.3032
H 6.90043 13.8785 -85.6574
H 2.8085 -13.1482 -85.6508
H 3.78752 -12.7507 -88.1646
H 5.64034 13.5168 -83.4753
H 4.55315 -13.0541 -83.3427
H 3.9386 13.2221 -83.5806
H 6.18926 -13.0976 -89.213
H 7.24692 -12.4029 -87.9996
H 6.97292 12.608 -88.563
H 8.32725 13.6206 -89.0769
O 8.28969 13.2687 -87.083
H 8.60092 12.3655 -87.0928
N -18.2315 4.09364 -67.441
C -19.3981 3.26479 -67.5464
N -19.9148 5.36339 -67.8317
C -20.4182 4.04865 -67.8136
C -18.6235 5.32224 -67.5702
C -16.8929 3.65484 -67.126
C -20.7522 6.6165 -67.7976
C -20.8695 7.35246 -69.0517
H -18.0654 6.25074 -67.4642
H -19.3209 2.24955 -67.3675
H -21.3946 3.69429 -67.9783
H -16.6044 4.31973 -66.3411
H -16.8309 2.59674 -66.8411
H -16.1781 3.76645 -67.917
H -21.7508 6.34416 -67.4061
H -20.424 7.32437 -67.0192
H -20.8139 8.35585 -68.6484
H -19.9772 7.05451 -69.6877
O -22.0436 7.27431 -69.8254
H -21.9819 7.93612 -70.5276
N 21.7794 -5.43788 -8.39326
C 21.6856 -4.90667 -9.65784
N 21.0167 -6.95099 -9.80713
C 21.0151 -5.74509 -10.4391
C 21.4483 -6.69535 -8.501
C 22.2771 -4.85691 -7.25269
C 20.6048 -8.3171 -10.2961
C 21.1093 -9.03958 -11.4985
H 21.6642 -7.34815 -7.69733
H 22.128 -4.04657 -9.75256
H 20.8337 -5.49194 -11.4875
H 22.5488 -5.725 -6.55762
H 23.2126 -4.49656 -7.54907
H 21.6395 -4.08141 -6.76323
H 20.7384 -9.16503 -9.60681
H 19.5519 -8.35397 -10.1549
H 22.1668 -9.16205 -11.5301
H 20.9119 -10.0206 -11.2253
O 20.4308 -8.5972 -12.6132
H 20.9441 -8.44718 -13.3552
N -20.1763 10.1725 -27.8999
C -19.1721 11.1398 -28.3848
N -19.813 9.80389 -29.9833
C -18.9601 10.8956 -29.6796
C -20.5689 9.49093 -28.9658
C -20.7406 9.92979 -26.5799
C -19.6569 9.08307 -31.2843
C -18.2542 8.2602 -31.3063
H -21.1706 8.57269 -29.0536
H -18.6348 11.8229 -27.8523
H -18.4188 11.5963 -30.3118
H -20.6847 10.9384 -26.1321
H -21.7483 9.57609 -26.5343
H -20.0533 9.2579 -26.0411
H -20.4071 8.37608 -31.43
H -19.6747 9.87638 -32.0203
H -18.3948 7.50504 -30.5638
H -17.9888 7.89619 -32.1837
O -17.0446 9.05152 -30.7707
H -16.4697 8.41611 -30.279
N 8.52231 3.13727 40.4473
C 9.69478 2.47758 40.5781
N 9.90756 4.11207 39.1304
C 10.5556 3.06508 39.6678
C 8.65186 4.06439 39.5605
C 7.23054 2.82105 41.1542
C 10.3496 5.06964 38.2025
C 9.3327 5.37064 37.0961
H 7.83725 4.60633 39.1746
H 9.90612 1.52572 41.2257
H 11.6048 2.78934 39.7331
H 6.59205 3.73624 41.2054
H 6.79817 1.977 40.5336
H 7.4535 2.47464 42.1426
H 10.4992 6.01192 38.6839
H 11.3075 4.73894 37.8288
H 8.45634 5.9172 37.2954
H 9.78963 6.06751 36.403
O 8.94966 4.24325 36.4809
H 8.01559 4.04495 36.5667
N 16.5706 -10.8133 26.4851
C 16.5986 -11.5217 27.6358
N 18.3138 -11.885 26.3905
C 17.7959 -12.1044 27.5963
C 17.6047 -11.0962 25.7287
C 15.4546 -10.019 26.0133
C 19.4251 -12.5331 25.827
C 19.4328 -12.4762 24.2737
H 17.9128 -10.6274 24.9243
H 15.7608 -11.4119 28.383
H 18.1096 -12.7978 28.3774
H 15.3823 -10.3686 24.9678
H 14.6213 -10.4428 26.5372
H 15.6977 -8.98557 26.2733
H 20.369 -11.9686 26.017
H 19.3917 -13.6005 26.0302
H 19.0623 -11.5179 23.8212
H 20.3978 -12.4955 23.8357
O 18.6128 -13.559 23.8349
H 19.2112 14.0054 23.2389
N -10.9693 -3.28035 -36.703
C -10.6903 -2.10171 -36.0768
N -10.195 -3.80599 -34.7767
C -10.2579 -2.45125 -34.8529
C -10.5352 -4.26199 -35.923
C -11.4334 -3.44535 -38.0795
C -9.80732 -4.58766 -33.6286
C -8.32806 -4.68698 -33.3257
H -10.5675 -5.3087 -36.249
H -10.83 -1.19727 -36.5394
H -10.0043 -1.93123 -33.9332
H -10.549 -3.86723 -38.7252
H -12.3476 -4.00923 -38.2716
H -11.5266 -2.44632 -38.4843
H -10.3216 -4.28856 -32.7352
H -10.1934 -5.60671 -33.7
H -7.93255 -3.71762 -33.0223
H -8.1597 -5.29628 -32.5112
O -7.44639 -5.11777 -34.3989
H -7.17112 -4.35565 -34.8418
N 10.8589 1.74087 -25.5047
C 10.4313 2.06876 -24.2538
N 9.56442 3.54578 -25.6144
C 9.56404 3.13958 -24.3103
C 10.4779 2.80321 -26.2711
C 11.8104 0.655108 -25.8581
C 8.97777 4.83985 -26.0041
C 7.57307 4.7002 -26.4993
H 10.8852 2.89727 -27.2554
H 10.8229 1.81706 -23.3014
H 9.21115 3.67499 -23.5263
H 12.7111 0.724945 -25.3167
H 11.3635 -0.320962 -25.7619
H 12.1636 0.869244 -26.8763
H 8.84521 5.40606 -25.0931
H 9.6737 5.28552 -26.724
H 7.58409 4.83857 -27.5549
H 7.16567 3.67306 -26.3097
O 6.63973 5.56048 -25.9316
H 5.90132 5.72532 -26.4825
N 11.0967 5.70851 -12.5438
C 11.1648 6.26167 -11.2833
N 12.7512 7.07689 -12.3644
C 12.0019 7.24635 -11.1755
C 12.1748 6.17313 -13.1727
C 9.93459 4.78838 -13.0547
C 13.8979 8.00753 -12.8292
C 13.4657 9.20198 -13.6334
H 12.6494 6.084 -14.2083
H 10.3847 6.04915 -10.6298
H 11.8922 8.10945 -10.5117
H 9.04389 5.01935 -12.4898
H 9.7278 4.88981 -14.0745
H 9.99661 3.72671 -12.7796
H 14.4064 8.28557 -11.9075
H 14.6555 7.4317 -13.398
H 13.0219 9.78339 -12.8095
H 14.4511 9.62364 -13.954
O 12.7214 8.8523 -14.7292
H 11.9937 9.49701 -14.7029
N -22.0668 1.1769 -14.0449
C -21.7144 2.1113 -13.1779
N -22.6846 2.97082 -15.0282
C -22.1075 3.23782 -13.7664
C -22.6965 1.70039 -15.1344
C -21.7801 -0.270987 -13.8143
C -23.1422 3.93473 -15.9503
C -22.1264 4.15044 -17.1062
H -23.0609 1.02911 -15.7891
H -21.3739 2.21074 -12.1922
H -22.1597 4.19527 -13.3074
H -21.4074 -0.927519 -14.6667
H -20.9218 -0.313671 -13.1977
H -22.6286 -0.72801 -13.31
H -24.1787 3.6881 -16.278
H -23.1328 4.92125 -15.5372
H -22.6119 4.73185 -17.7786
H -21.2273 4.63744 -16.7242
O -21.7865 2.93287 -17.7948
H -20.7609 2.86306 -17.8959
N 13.1458 8.5542 62.5963
C 13.638 9.75722 62.9602
N 11.5175 10.0049 62.864
C 12.7029 10.6656 63.1834
C 11.8374 8.71999 62.537
C 13.8885 7.31072 62.3652
C 10.2248 10.7386 62.8168
C 9.7998 11.4602 64.0915
H 11.1465 8.02376 62.0644
H 14.6164 9.80626 63.204
H 12.826 11.746 63.512
H 13.8165 6.73397 63.2702
H 13.2621 6.76634 61.6997
H 14.9379 7.55561 62.1651
H 10.2869 11.4173 61.9904
H 9.51717 9.99095 62.5174
H 8.80028 11.8704 64.206
H 9.95443 10.7228 65.0447
O 10.526 12.5859 64.2381
H 10.5261 12.9171 65.1456
N -3.38581 -1.47144 49.1129
C -3.55634 -0.203525 49.6964
N -4.31985 -0.229603 47.692
C -4.17009 0.550576 48.7749
C -3.74994 -1.37578 47.8263
C -2.59767 -2.5713 49.7781
C -4.943 0.0622547 46.4177
C -6.15651 1.06018 46.5809
H -3.67793 -2.13286 46.9519
H -3.29944 0.115807 50.7063
H -4.57583 1.62191 48.7371
H -1.83192 -3.09975 49.2088
H -2.17 -2.1693 50.717
H -3.24563 -3.36353 50.0641
H -4.16533 0.475042 45.7704
H -5.36367 -0.790669 45.9942
H -5.70614 2.0225 46.7011
H -6.92455 0.729119 45.8131
O -6.84554 0.752905 47.7477
H -7.28441 -0.0628044 47.4564
N 17.6757 0.466778 -13.0237
C 17.2624 -0.486806 -13.9593
N 18.8633 0.728351 -14.8855
C 18.0296 -0.369635 -15.0907
C 18.5491 1.22811 -13.6713
C 17.2383 0.627882 -11.636
C 19.9543 1.19652 -15.7406
C 19.3693 2.19569 -16.7217
H 19.1322 2.0219 -13.226
H 16.5844 -1.2252 -13.7563
H 18.0828 -1.17142 -15.9055
H 17.9254 0.43023 -10.8954
H 16.8577 1.65222 -11.573
H 16.4395 -0.0912138 -11.5837
H 20.6285 1.7531 -15.0289
H 20.5107 0.392688 -16.2849
H 20.0525 2.40722 -17.4448
H 18.6128 1.83464 -17.4489
O 19.0812 3.5318 -16.2079
H 19.4579 4.14994 -16.7179
N -25.7321 -9.15484 69.0104
C 26.1486 -10.2873 68.7655
N 25.227 -9.03814 70.3498
C 25.1259 -10.2351 69.6467
C -26.2054 -8.55725 70.0924
C -24.2955 -8.7417 68.499
C 24.3139 -8.79661 71.5521
C 24.1156 -7.24457 71.859
H -25.7642 -7.6267 70.4874
H -26.2048 -11.0292 67.9772
H 24.4042 -10.9955 69.7655
H -23.6093 -9.32903 69.0166
H -24.101 -8.88197 67.4736
H -24.0676 -7.67943 68.7995
H 23.3368 -9.15143 71.1777
H 24.5941 -9.38549 72.3742
H 23.5131 -6.74428 71.2
H 23.6354 -7.19438 72.8861
O 25.3654 -6.53074 71.9748
H 25.2888 -5.65099 72.431
N 21.9446 -11.3543 12.037
C 21.2601 -10.1354 11.9757
N 19.781 -11.7822 11.7468
C 19.9518 -10.4222 11.6003
C 20.991 -12.3364 11.978
C 23.4542 -11.4871 12.1831
C 18.5012 -12.5446 11.6285
C 18.7405 13.8818 11.4644
H 21.0859 -13.4017 11.9309
H 21.5898 -9.12855 12.0009
H 19.0831 -9.90097 11.2994
H 23.7211 -12.5858 12.1292
H 23.9485 -10.8688 11.3499
H 23.7389 -11.3643 13.2879
H 17.7784 -12.3229 12.4465
H 18.0348 -12.1663 10.7271
H 19.1186 13.4145 12.3388
H 17.8185 13.5246 11.0609
O 19.5433 13.4905 10.4741
H 19.1707 12.8664 9.86922
N -6.8431 11.8063 45.2867
C -6.29292 10.6764 45.7474
N -7.5219 11.6246 47.314
C -6.68619 10.5738 47.0825
C -7.41552 12.4579 46.2871
C -6.84045 12.3402 43.8903
C -8.23779 11.7689 48.5414
C -9.56804 12.4327 48.294
H -7.93896 13.4711 46.1981
H -5.5734 10.0701 45.1834
H -6.35883 9.83276 47.8634
H -7.38796 13.252 43.8688
H -5.83853 12.3415 43.6176
H -7.47473 11.5843 43.3909
H -8.44342 10.84 49.0901
H -7.60655 12.3757 49.2645
H -10.1113 11.8925 47.5207
H -10.3333 12.2924 49.0674
O -9.39786 13.782 47.919
H -10.3181 -13.8088 47.9267
N 4.13111 1.45335 31.0905
C 5.36405 1.43217 30.4664
N 3.64257 1.30287 28.9533
C 5.03785 1.53854 29.1176
C 3.11433 1.21197 30.1966
C 3.95921 1.59155 32.5482
C 2.95566 1.1691 27.668
C 2.3402 2.44318 27.0229
H 2.12726 0.986933 30.2431
H 6.26636 1.60872 31.0958
H 5.7247 1.67704 28.2781
H 3.45152 0.790439 32.9048
H 5.00991 1.56415 33.1019
H 3.40964 2.48357 32.6881
H 3.75241 0.759426 27.0548
H 2.07968 0.57863 27.8622
H 2.97124 3.30562 27.0612
H 2.15191 2.27975 26.0061
O 1.04971 2.82652 27.5647
H 0.632306 3.67217 27.1949
N 4.92482 -11.0364 -41.8201
C 3.75629 -11.3387 -42.527
N 5.30889 -12.8476 -42.9366
C 4.13541 -12.3904 -43.2721
C 5.78526 -11.9246 -42.1475
C 5.08906 -9.95284 -40.8741
C 6.12918 -13.8711 -43.6532
C 5.54487 12.6062 -43.5843
H 6.86959 -12.0213 -41.9583
H 2.80619 -10.8064 -42.3261
H 3.63386 -12.8727 -44.1148
H 5.66845 -10.2892 -39.9083
H 5.76824 -9.18555 -41.2215
H 4.07477 -9.52286 -40.7849
H 6.15603 -13.4133 -44.6527
H 7.10449 -13.8772 -43.3766
H 6.27379 11.8171 -43.5428
H 4.99133 12.5133 -42.6208
O 4.45376 12.6381 -44.4884
H 4.79229 12.2494 -45.2923
N -5.24982 -12.1033 -34.6161
C -3.86847 -12.0525 -34.6317
N -4.67876 -13.927 -35.5535
C -3.50641 -13.2824 -35.0636
C -5.66034 -13.0939 -35.2703
C -6.08474 -11.0555 -33.9031
C -4.84981 12.7247 -36.1781
C -3.63333 11.7696 -36.0368
H -6.72441 -13.4085 -35.3432
H -3.27727 -11.2513 -34.3749
H -2.48069 -13.6886 -35.1404
H -6.43946 -11.4374 -32.9243
H -5.40708 -10.3288 -33.5752
H -6.8423 -10.5535 -34.4398
H -5.71105 12.1829 -35.7669
H -5.22253 12.8844 -37.176
H -3.19761 11.641 -35.0447
H -3.91158 10.7676 -36.2645
O -2.59778 12.2228 -36.8125
H -2.14632 11.3963 -37.0112
N -21.9268 2.096 -50.2886
C -21.1387 2.61152 -51.3075
N -23.1295 2.08739 -52.1683
C -21.9025 2.65074 -52.4445
C -23.1553 1.80032 -50.8777
C -21.4978 1.70375 -48.9765
C -24.2323 1.99456 -53.0724
C -24.405 0.550864 -53.5698
H -24.0316 1.26433 -50.5083
H -20.1181 2.93638 -51.1293
H -21.6944 3.12369 -53.3959
H -20.6648 1.0119 -48.9971
H -21.1734 2.49585 -48.5036
H -22.3282 1.18378 -48.5288
H -25.0699 2.25205 -52.5434
H -24.1484 2.75211 -53.8007
H -24.7774 -0.132744 -52.7636
H -25.1188 0.499263 -54.4084
O -23.2125 -0.0692684 -53.9326
H -23.2734 -0.565638 -54.7196
N 6.04327 6.15855 -72.827
C 7.05115 7.02987 -73.1315
N 5.36775 8.10547 -72.3718
C 6.62883 8.23154 -72.8699
C 5.07432 6.8526 -72.2188
C 6.05771 4.7323 -73.0959
C 4.58818 9.21859 -71.7819
C 3.66203 10.0562 -72.762
H 4.12409 6.53164 -71.7764
H 7.99825 6.71948 -73.4817
H 7.20556 9.13422 -72.822
H 6.90614 4.49924 -73.7057
H 6.23891 4.11017 -72.2392
H 5.16894 4.41379 -73.5794
H 4.07365 8.90636 -70.9449
H 5.25724 9.97637 -71.4074
H 3.39147 10.9537 -72.1852
H 4.1262 10.4263 -73.6602
O 2.49356 9.32594 -73.0834
H 2.03406 9.86088 -73.7218
N 4.03737 5.11238 -49.241
C 4.10764 3.96241 -49.9793
N 2.23685 3.90522 -48.8789
C 3.0197 3.20419 -49.8213
C 2.81387 5.10661 -48.767
C 5.23833 5.92985 -48.893
C 0.973614 3.51519 -48.3697
C 0.370934 4.41122 -47.2857
H 2.38861 5.82934 -48.0688
H 4.99318 3.77118 -50.5235
H 2.60082 2.27262 -50.1459
H 5.08912 6.96864 -49.106
H 5.51061 5.84161 -47.8815
H 6.05321 5.42016 -49.3669
H 0.320919 3.39803 -49.1954
H 0.996051 2.54805 -47.8958
H -0.585977 4.01127 -47.1811
H 0.781274 4.12236 -46.3515
O 0.313771 5.78356 -47.5808
H -0.00958212 6.20385 -46.8386
N 12.5344 -0.0204349 -91.0109
C 12.2247 0.4754 -89.7681
N 10.3657 -0.0141601 -90.8429
C 10.8988 0.506575 -89.6736
C 11.3971 -0.331905 -91.6307
C 13.8875 -0.252439 -91.547
C 8.92045 -0.199832 -91.1014
C 8.51459 -0.0318341 -92.5871
H 11.3157 -0.753931 -92.6175
H 12.9388 0.819632 -89.0483
H 10.3234 0.90365 -88.8673
H 14.4078 -0.958884 -90.9252
H 13.8292 -0.6588 -92.5358
H 14.4452 0.659352 -91.5466
H 8.6389 -1.1822 -90.7611
H 8.36491 0.522816 -90.5092
H 8.85366 0.931233 -92.973
H 9.01019 -0.821832 -93.151
O 7.1141 -0.132275 -92.8415
H 6.9955 -0.198296 -93.7926
N -8.29168 1.28096 66.2834
C -8.84327 0.496985 67.264
N -6.66829 0.663039 67.5408
C -7.81548 0.0238734 67.9503
C -6.97337 1.40756 66.5386
C -9.10126 1.97037 65.2047
C -5.4151 0.529645 68.2934
C -5.07489 1.57795 69.3298
H -6.14951 1.97586 66.0113
H -9.8964 0.393762 67.2954
H -7.90508 -0.505971 68.8798
H -9.46364 1.25199 64.5236
H -9.97983 2.5285 65.5965
H -8.42996 2.67595 64.6345
H -5.47956 -0.465217 68.825
H -4.60553 0.448879 67.5149
H -5.80156 1.57063 70.1179
H -4.03875 1.29724 69.6902
O -5.22272 2.91057 68.7705
H -5.02813 3.59721 69.3747
N -5.62262 -10.3982 -26.1946
C -6.25117 -11.5811 -26.39
N -6.63255 -10.8603 -24.2863
C -6.79245 -11.8656 -25.1583
C -5.96862 -9.97674 -24.9359
C -4.95358 -9.56523 -27.2579
C -7.44608 -10.9072 -23.0603
C -6.67061 -11.2241 -21.8277
H -5.58103 -9.11392 -24.4435
H -6.091 -12.167 -27.3376
H -7.2545 -12.7409 -25.0437
H -3.90991 -9.75073 -27.4726
H -5.41362 -9.55266 -28.256
H -5.01972 -8.49477 -26.9818
H -7.91147 -9.88742 -22.8272
H -8.17262 -11.7013 -23.099
H -7.26186 -10.9649 -21.0357
H -6.34893 -12.2934 -21.7222
O -5.474 -10.4493 -21.6087
H -4.97616 -10.6733 -20.7932
N 13.5797 4.79627 -39.19
C 12.3602 4.87196 -38.424
N 13.543 3.24207 -37.6938
C 12.3998 3.88662 -37.559
C 14.3045 3.92713 -38.5564
C 13.9528 5.57174 -40.422
C 13.8582 1.97139 -37.0541
C 13.9222 2.11905 -35.478
H 15.2837 3.67328 -38.9072
H 11.5298 5.51855 -38.7492
H 11.638 3.59887 -36.8506
H 13.0842 5.84722 -40.9192
H 14.4765 6.34192 -40.0669
H 14.2377 4.77772 -41.0506
H 13.0834 1.26737 -37.0073
H 14.6575 1.53151 -37.5246
H 12.8293 2.34029 -35.3104
H 14.0185 1.11874 -35.0392
O 14.7252 3.0228 -34.8677
H 14.4833 3.31458 -34.0147
N 12.9854 -2.90797 39.7973
C 13.6223 -3.73292 40.7666
N 13.7303 -1.6302 41.3881
C 13.918 -2.92634 41.777
C 13.3097 -1.66888 40.0811
C 12.338 -3.40799 38.5092
C 14.0873 -0.324073 42.2589
C 15.568 -0.115922 42.5684
H 12.9749 -0.753956 39.6314
H 13.6134 -4.83881 40.6752
H 14.1764 -3.19363 42.8046
H 12.2564 -2.5498 37.7938
H 12.9824 -4.13001 38.0813
H 11.3741 -3.73594 38.7013
H 13.7918 0.641234 41.6718
H 13.4541 -0.47216 43.1539
H 15.7706 0.271373 43.5792
H 16.0734 -1.05941 42.379
O 16.267 0.681346 41.583
H 17.0673 0.645908 41.9447
N 25.1785 -0.0991565 63.0273
C -26.2075 -0.559915 62.6666
N 26.0194 1.29921 61.6543
C -25.6338 0.326403 62.0052
C 24.8985 1.01162 62.3481
C 24.3267 -0.771922 64.0144
C -26.202 2.4404 60.805
C 25.9139 3.81661 61.3737
H 24.0215 1.63849 62.4735
H -25.7967 -1.44981 62.9285
H -24.5749 0.303877 61.5727
H 24.7622 -1.71029 64.3236
H 24.2935 -0.181115 64.8888
H 23.3447 -1.03259 63.6257
H -25.1735 2.58319 60.6631
H 25.8034 2.23986 59.9767
H 26.3579 3.92505 62.3871
H 26.0289 4.73554 60.7748
O 24.4396 3.81189 61.4676
H 24.168 4.55182 60.989
N -16.5331 -5.14305 -62.8528
C -17.1751 -6.13154 -62.046
N -16.4485 -4.55713 -60.7552
C -17.178 -5.71189 -60.7966
C -16.0628 -4.27047 -62.0057
C -16.6386 -5.03894 -64.3216
C -16.2144 -3.78583 -59.5409
C -14.7207 -3.79772 -59.0818
H -15.4735 -3.39053 -62.3416
H -17.5345 -6.95939 -62.5603
H -17.7819 -6.11245 -59.912
H -17.6141 -4.65053 -64.556
H -15.8386 -4.37468 -64.7556
H -16.5533 -6.03975 -64.7506
H -16.5148 -2.77114 -59.7098
H -16.9915 -4.11626 -58.8268
H -14.8227 -3.53691 -58.0354
H -14.2549 -4.82314 -59.0513
O -13.8827 -2.71411 -59.6754
H -13.0987 -2.55804 -59.166
N -14.6607 -10.9337 -39.5424
C -15.799 -10.3992 -40.1188
N -15.9917 -12.533 -40.0031
C -16.6114 -11.3929 -40.4149
C -14.9571 -12.1783 -39.2858
C -13.4592 -10.1845 -39.1846
C -16.4658 -13.9414 -40.2714
C -17.3933 13.8747 -41.4608
H -14.3549 -12.8207 -38.7234
H -15.8515 -9.3839 -40.3327
H -17.5753 -11.3155 -40.867
H -13.5883 -9.4195 -38.4007
H -12.8572 -10.9511 -38.6593
H -12.8524 -9.87935 -39.9746
H -15.5608 13.4063 -40.5436
H -16.7466 13.5169 -39.366
H -18.2407 -13.4352 -41.1734
H -16.9122 -13.4964 -42.2582
O -17.5762 12.557 -41.9176
H -18.0833 12.7154 -42.7477
N -22.253 -6.30639 20.9693
C -21.8815 -6.07338 19.6046
N -24.0261 -5.55499 19.8261
C -22.8978 -5.61778 18.9481
C -23.5518 -6.01267 21.0472
C -21.404 -6.96927 21.979
C -25.4767 -5.4138 19.6073
C -26.0105 -6.42332 18.5409
H -24.137 -6.23861 21.8136
H -20.9394 -6.51376 19.2239
H -23.1019 -5.29877 18.0063
H -20.7339 -6.26648 22.3149
H -21.9165 -7.5805 22.7574
H -20.826 -7.65998 21.5071
H -25.8947 -5.56987 20.5688
H -25.7516 -4.48467 19.3084
H -25.6699 -6.42133 17.5012
H -26.0037 -7.47595 18.9255
O 25.3552 -5.93197 18.5104
H 25.1471 -5.82629 17.5666
N 11.7791 12.2868 -47.6399
C 10.4628 12.7044 -47.5521
N 11.4142 12.6963 -45.5861
C 10.2023 12.7974 -46.2989
C 12.2672 12.2904 -46.4696
C 12.3329 11.5214 -48.7383
C 11.4889 12.6208 -44.124
C 10.944 11.4554 -43.3992
H 13.1572 11.9224 -46.0592
H 9.83561 12.8602 -48.3691
H 9.26817 13.1274 -45.8622
H 11.9962 12.0789 -49.6502
H 13.3723 11.6607 -48.5636
H 11.8641 10.5472 -48.7094
H 12.5482 12.3835 -43.8718
H 11.2839 13.5738 -43.5409
H 11.1866 10.3801 -43.7301
H 11.1758 11.5477 -42.3509
O 9.52434 11.7318 -43.2515
H 9.01704 11.0261 -42.7975
N 19.1186 13.5943 58.5224
C 18.6819 13.5498 59.8499
N 17.1227 12.6362 58.5867
C 17.5095 12.9552 59.9196
C 18.1855 12.9389 57.8162
C 20.2828 -13.6653 57.9154
C 15.9066 11.9101 58.0529
C 15.9084 10.3893 57.9481
H 18.2665 12.92 56.7856
H 19.2558 14.0234 60.6543
H 16.9691 12.6615 60.7569
H 20.2692 -12.6253 58.1667
H 21.1767 13.922 58.3197
H 20.273 -13.7378 56.7773
H 15.0832 12.0537 58.7035
H 15.7442 12.4104 57.071
H 16.9036 10.1483 58.2432
H 15.3515 9.77128 58.6613
O 15.7596 9.72754 56.7016
H 14.922 9.7366 56.2283
N -17.1166 7.44972 -53.1035
C -16.4068 6.84641 -54.1186
N -16.6774 8.99724 -54.5226
C -16.1047 7.79561 -55.0181
C -17.2503 8.72768 -53.397
C -17.7509 6.76215 -51.9423
C -16.6096 10.3539 -55.1253
C -17.8893 10.6896 -55.7887
H -17.785 9.43066 -52.8632
H -16.2982 5.73863 -54.0367
H -15.4037 7.62428 -55.9149
H -18.7987 6.47419 -52.2353
H -17.2503 5.75825 -51.8784
H -17.7663 7.38763 -51.036
H -16.3621 11.166 -54.3924
H -15.9549 10.3743 -56.0353
H -17.8245 11.6715 -56.2704
H -18.0699 9.96572 -56.6159
O -18.9807 10.7006 -54.8132
H -19.7502 10.3726 -55.2346
N 20.6498 -13.9389 -78.1378
C 19.8357 13.942 -77.0216
N 21.9563 13.7494 -76.4147
C 20.6523 13.7312 -75.961
C 21.9134 13.9081 -77.7398
C 20.2289 -13.8634 -79.5366
C 23.1693 13.6238 -75.6035
C 24.2357 -13.2271 -75.7991
H 22.8014 13.9233 -78.3571
H 18.7462 -14.0138 -77.0336
H 20.3577 13.5769 -74.9313
H 19.4934 -13.0971 -79.6677
H 21.082 -13.6047 -80.0904
H 19.8096 13.1321 -79.8403
H 22.8838 13.7158 -74.5637
H 23.5936 12.648 -75.7951
H 23.7876 -12.281 -75.5616
H 25 -13.3729 -75.0519
O 24.9097 -13.1627 -77.0477
H 25.3243 -12.3009 -77.0679
N 13.401 7.82448 -59.0632
C 14.4209 8.34761 -59.845
N 14.4262 9.3675 -57.8897
C 14.9843 9.34654 -59.1538
C 13.5566 8.40778 -57.8382
C 12.4766 6.67356 -59.4501
C 14.8124 10.1883 -56.6923
C 13.6237 10.8781 -55.9617
H 13.0506 8.16047 -56.9265
H 14.681 7.97962 -60.8054
H 15.8315 9.91969 -59.5113
H 11.7047 7.02057 -60.0521
H 13.0302 5.86305 -59.8305
H 11.9871 6.33589 -58.5592
H 15.3304 9.48192 -56.1198
H 15.5541 10.9137 -57.0758
H 12.851 10.2223 -55.8908
H 13.9802 11.3463 -55.0476
O 13.008 11.7513 -56.8306
H 12.0479 11.857 -56.6524
N 25.2174 13.5994 52.2637
C 26.0544 -13.1696 52.1657
N 26.0299 -13.9427 54.3002
C -26.0275 -12.9883 53.3989
C 25.3253 13.1267 53.5276
C 24.4938 13.0624 51.1232
C 26.089 -13.9056 55.8077
C 26.2396 12.6058 56.3827
H 24.8655 12.2695 53.8102
H 26.2843 -12.5921 51.2609
H -25.5243 -12.1311 53.7784
H 23.6406 13.722 51.034
H 25.0253 13.0707 50.2036
H 24.2228 12.1478 51.5204
H -25.7771 -13.2701 56.0348
H 25.1614 -13.4705 56.1532
H -26.2693 12.7409 57.4813
H 25.353 12.0454 56.0399
O -25.2616 12.0474 55.9064
H -25.018 11.3054 56.54
N 25.4959 4.32371 -62.6545
C -26.2137 3.38599 -62.7116
N -25.4706 5.1006 -61.619
C -25.1304 3.85379 -62.0322
C 25.945 5.42966 -61.9561
C 24.2572 4.1423 -63.2796
C -24.5154 5.90344 -60.8521
C -24.9187 7.4163 -60.5848
H 25.4486 6.30527 -61.8045
H 26.2431 2.4351 -63.2268
H -24.2069 3.38475 -61.7963
H 24.3414 3.9457 -64.2637
H 23.7101 3.2818 -62.9016
H 23.6096 5.01693 -63.3011
H -24.2624 5.48026 -59.8643
H -23.5948 6.01172 -61.3377
H -24.0866 7.82356 -60.0338
H -25.1019 7.94999 -61.5013
O -26.1551 7.56591 -59.8617
H 26.1195 8.39459 -60.0952
N -20.0369 13.8857 -79.4356
C -18.7371 -13.5888 -79.6512
N -19.6974 13.8866 -81.5714
C -18.5508 -13.5712 -80.9819
C -20.5491 13.5521 -80.6255
C -20.7131 13.7967 -78.1016
C -19.926 13.7237 -83.0283
C -21.3169 -13.8 -83.5062
H -21.515 13.1389 -80.8551
H -18.0774 -13.2406 -78.8798
H -17.7129 -13.2277 -81.5516
H -21.3405 -13.2713 -77.9653
H -21.2997 12.8987 -78.0297
H -19.9693 13.7514 -77.3182
H -19.2088 -13.6083 -83.5707
H -19.7552 12.693 -83.3128
H -21.4262 -12.7191 -83.4
H -21.3708 13.8776 -84.5571
O -22.3748 13.4738 -82.8522
H -22.4137 12.5791 -83.1801
N -15.4658 -9.03448 41.6258
C -15.5369 -9.90392 40.4975
N -17.401 -8.65335 40.5703
C -16.6578 -9.44907 39.8336
C -16.6746 -8.40554 41.6297
C -14.5832 -9.15269 42.8811
C -18.6424 -7.91454 40.0935
C -19.6454 -7.89355 41.2397
H -16.9724 -7.64623 42.2691
H -14.7955 -10.5511 40.2827
H -17.1249 -9.82357 38.9557
H -13.5548 -8.99854 42.5287
H -14.8748 -8.47174 43.6405
H -14.5964 -10.1421 43.2779
H -18.4463 -6.92229 39.7339
H -19.0436 -8.48567 39.2432
H -20.5534 -7.3749 40.9645
H -19.9071 -8.85292 41.5781
O -19.238 -7.01807 42.3255
H -20.0181 -6.94589 42.9664
N -0.999748 8.06004 45.7955
C -0.244012 9.11875 46.2095
N 0.784311 7.24584 46.822
C 0.870095 8.71617 46.8527
C -0.502308 6.95715 46.3742
C -2.16599 8.25507 44.9516
C 1.92715 6.44405 47.2773
C 2.78256 5.83761 46.0958
H -0.85435 5.95923 46.223
H -0.484768 10.0592 45.8151
H 1.83367 9.22626 47.2824
H -2.0555 9.23084 44.4614
H -2.29438 7.42571 44.1968
H -3.05889 8.20462 45.6444
H 2.50188 6.99952 48.043
H 1.76887 5.37415 47.8237
H 3.67353 6.4199 46.1576
H 3.0196 4.72675 45.9746
O 2.12908 6.35729 44.9388
H 2.67728 6.45635 44.2324
N -13.8509 2.69142 -2.3346
C -12.5335 2.92952 -2.46498
N -13.0737 2.89273 -0.333671
C -12.0437 3.18367 -1.20968
C -14.1579 2.74148 -1.05386
C -14.7568 2.50829 -3.42385
C -13.1477 2.92542 1.14988
C -13.4672 4.37761 1.73729
H -15.1887 2.86077 -0.626677
H -12.1389 2.92991 -3.50613
H -11.0396 3.4523 -0.846924
H -14.5542 1.49263 -3.828
H -15.7947 2.60737 -3.05781
H -14.3809 3.21062 -4.089
H -13.8562 2.21514 1.54704
H -12.2785 2.53439 1.61311
H -14.5471 4.77816 1.68879
H -13.2713 4.36098 2.78083
O -12.6944 5.35798 1.06218
H -12.6623 6.16463 1.4597
N 1.03672 -6.56776 27.0107
C 0.00879687 -7.13951 27.7487
N 1.89365 -7.41446 28.8029
C 0.507707 -7.45626 28.9305
C 2.15594 -7.04508 27.5661
C 1.05195 -5.75896 25.8091
C 2.88377 -7.91107 29.7661
C 2.89328 -9.39268 30.1113
H 3.13908 -6.99819 27.2351
H -1.02863 -7.09255 27.4138
H -0.0885102 -7.55778 29.9072
H 0.176476 -4.99449 25.9783
H 1.86756 -5.07626 25.8062
H 0.862848 -6.39114 24.8861
H 3.77734 -7.99682 29.3135
H 2.92005 -7.39284 30.7508
H 1.87394 -9.60983 30.5174
H 2.96108 -10.0104 29.1517
O 3.92479 -9.79822 30.9786
H 3.74456 -10.7802 30.995
N -10.5848 7.09512 42.1564
C -11.5677 7.8268 41.5807
N -10.0975 7.40433 39.9686
C -11.3121 7.97505 40.2363
C -9.57904 7.06502 41.1266
C -10.537 6.48906 43.536
C -9.53779 7.1396 38.5817
C -10.1627 7.82011 37.3538
H -8.63367 6.62426 41.2533
H -12.443 8.10828 42.1284
H -12.0363 8.38334 39.5959
H -10.1797 5.47722 43.5368
H -9.95143 7.18424 44.1583
H -11.5113 6.56459 43.9966
H -8.46742 7.41703 38.5037
H -9.49574 6.09392 38.3784
H -10.0639 8.89462 37.6095
H -9.50697 7.58207 36.4451
O -11.643 7.40853 37.1111
H -12.0907 8.17824 36.7428
N 25.5228 9.45685 40.255
C 24.98 8.82255 41.3731
N 25.3563 7.3127 39.747
C 24.913 7.49714 41.0656
C 25.9701 8.45643 39.4663
C 25.5179 10.9038 39.8023
C 25.0015 6.38387 38.7761
C 25.8426 5.15094 38.8109
H -26.1154 8.56098 38.5331
H 24.7841 9.45089 42.25
H 24.5945 6.75348 41.7964
H 25.4339 11.5147 40.5365
H 26.2683 11.1947 39.0692
H 24.4595 11.1043 39.5175
H 24.1095 5.98719 39.1659
H 24.9065 6.8308 37.7545
H 25.1694 4.48678 38.3554
H -25.9789 5.26644 38.0672
O 26.2899 4.60288 40.0459
H -25.8417 3.79582 39.8984
N 21.7881 -7.17474 50.874
C 22.0279 -8.06741 49.8465
N 22.0806 -5.95758 49.1225
C 22.4199 -7.31702 48.8882
C 21.7032 -5.93744 50.3714
C 21.248 -7.53271 52.2626
C 21.9942 -4.72782 48.305
C 22.7079 -3.48134 48.9745
H 21.2956 -5.07894 50.8863
H 22.0866 -9.14198 49.9506
H 22.8415 -7.56976 47.9889
H 20.2962 -7.04708 52.5311
H 21.2906 -8.65421 52.5221
H 22.0751 -7.26399 52.9387
H 22.4872 -4.88689 47.3799
H 20.9929 -4.57862 48.1353
H 23.6184 -3.15443 48.5593
H 22.116 -2.6088 48.6867
O 22.9771 -3.36816 50.3349
H 23.2591 -2.45501 50.4013
N -18.5779 8.0727 26.6613
C -17.5717 8.78654 27.2616
N -17.3355 6.63293 27.8441
C -16.752 7.88848 27.8777
C -18.4295 6.76349 26.999
C -19.795 8.69878 26.1804
C -16.9243 5.41258 28.5356
C -17.8485 4.19836 28.5343
H -19.0839 6.01958 26.7896
H -17.5124 9.85719 27.4568
H -15.8613 7.96862 28.5023
H -20.3618 9.3134 26.8278
H -19.4547 9.37763 25.5121
H -20.4729 7.99618 25.7151
H -15.9343 5.1494 28.06
H -16.511 5.48269 29.5139
H -17.1047 3.39335 28.8575
H -18.6396 4.38864 29.2908
O -18.4309 3.95188 27.2989
H -19.0722 3.26343 27.3427
N -23.2157 -11.627 46.8542
C -24.2282 -10.6191 46.7642
N -24.5604 -12.3289 45.3691
C -25.1424 -11.099 45.8847
C -23.3875 -12.5696 45.8737
C -22.0246 -11.4352 47.6601
C -25.2844 -13.272 44.6273
C -25.864 -12.7476 43.3092
H -22.694 -13.4753 45.7228
H -24.3049 -9.651 47.369
H -26.0515 -10.624 45.6918
H -21.8763 -10.4365 47.6366
H -22.2905 -11.7273 48.6328
H -21.1547 -12.0146 47.3497
H -24.6342 13.924 44.2916
H -26.0275 -13.6742 45.3423
H -25.0834 -12.226 42.7259
H -26.2822 -13.5024 42.6964
O 25.9835 -11.6822 43.635
H 25.8255 -11.0832 42.8368
N 9.48409 -11.1292 57.1524
C 8.08582 -10.7333 57.0368
N 8.87709 -10.2349 59.0396
C 7.76948 -10.0776 58.168
C 9.85247 -10.8299 58.3656
C 10.1211 -12.0047 56.1399
C 9.05564 -9.67122 60.3873
C 8.70379 -10.7154 61.4639
H 10.8933 -10.875 58.5646
H 7.43421 -11.0553 56.1852
H 6.88306 -9.49793 58.5032
H 11.1374 -11.863 56.2992
H 9.7545 -12.961 56.3182
H 9.91305 -11.7606 55.1445
H 10.0718 -9.3661 60.6056
H 8.40173 -8.78289 60.4005
H 9.47873 -11.3952 61.5288
H 8.4863 -10.2574 62.4014
O 7.56312 -11.4264 60.9466
H 7.1849 -11.9981 61.604
N -3.88367 -3.05019 -53.0255
C -3.78417 -3.49078 -54.2904
N -4.84203 -1.61001 -54.3313
C -4.29536 -2.58255 -55.1108
C -4.65548 -1.97838 -53.0648
C -3.46793 -3.8142 -51.7594
C -5.60085 -0.354857 -54.7741
C -4.71586 0.880943 -54.6433
H -5.08759 -1.52795 -52.1501
H -3.33555 -4.48377 -54.3952
H -4.24835 -2.6511 -56.1744
H -3.63072 -3.12638 -50.9104
H -4.02599 -4.73518 -51.6853
H -2.43951 -4.02967 -51.8225
H -6.04973 -0.422449 -55.7641
H -6.39762 -0.164065 -54.0645
H -3.84439 0.531497 -54.1026
H -4.41336 1.12614 -55.6282
O -5.56659 1.90521 -54.1211
H -5.04054 2.70512 -53.9201
N 14.5793 12.2567 29.3463
C 15.6706 12.3862 30.0786
N 14.0709 13.5455 31.0693
C 15.3922 13.245 31.1625
C 13.583 12.7929 30.1155
C 14.2715 11.1901 28.2948
C 13.1853 -13.7444 32.088
C 12.6995 -12.3123 31.9089
H 12.6478 12.7252 29.8431
H 16.5156 11.889 29.7355
H 15.8251 13.5659 32.01
H 13.6668 11.6668 27.492
H 15.2624 10.8056 27.9476
H 13.6861 10.4038 28.7594
H 12.2548 13.6019 32.1553
H 13.7619 -13.8604 32.995
H 12.1544 -12.4031 30.8632
H 12.1471 -11.9123 32.8505
O 13.841 -11.4749 31.8412
H 13.6713 -10.549 31.7207
N -20.3161 -8.84514 -33.8984